# ODT 1.0
# Table Start
# Title: mmArchive Data Table, Thu Aug 24 17:05:16 CEST 2023
# Columns: {Oxs_CGEvolve:evolver:Max mxHxm} {Oxs_CGEvolve:evolver:Total energy} {Oxs_CGEvolve:evolver:Delta E} {Oxs_CGEvolve:evolver:Bracket count} {Oxs_CGEvolve:evolver:Line min count} {Oxs_CGEvolve:evolver:Conjugate cycle count} {Oxs_CGEvolve:evolver:Cycle count} {Oxs_CGEvolve:evolver:Cycle sub count} {Oxs_CGEvolve:evolver:Energy calc count} Oxs_UniformExchange:exchange:Energy {Oxs_UniformExchange:exchange:Max Spin Ang} {Oxs_UniformExchange:exchange:Stage Max Spin Ang} {Oxs_UniformExchange:exchange:Run Max Spin Ang} Oxs_DMI_T:dmi:Energy Oxs_FixedZeeman:zeeman:Energy Oxs_Demag:demag:Energy Oxs_MinDriver::Iteration {Oxs_MinDriver::Stage iteration} Oxs_MinDriver::Stage Oxs_MinDriver::mx    Oxs_MinDriver::my    Oxs_MinDriver::mz   
# Units:                 A/m                                 J                                J                                 {}                                   {}                                        {}                                      {}                                   {}                                      {}                                     J                                      deg                                            deg                                              deg                                J                         J                         J                       {}                           {}                         {}                 {}                   {}                   {}           
                  0.091066302816099995              -3.7982336052899998e-17               0                                 363                                  295                                       15                                      324                                  245                                     659                                   8.2606324465499999e-18                     15.538771902100001                             25.830104233099998                               25.830104233099998                -2.1339683503400001e-17     -3.4609340264800002e-17        9.7060552687200007e-18     618                          618                        0                   -3.0895786047499998e-18 -3.0895786047499998e-18  0.73726284508899997
# Table End
