# ODT 1.0
# Table Start
# Title: mmArchive Data Table, Thu Aug 24 18:00:28 CEST 2023
# Columns: {Oxs_CGEvolve:evolver:Max mxHxm} {Oxs_CGEvolve:evolver:Total energy} {Oxs_CGEvolve:evolver:Delta E} {Oxs_CGEvolve:evolver:Bracket count} {Oxs_CGEvolve:evolver:Line min count} {Oxs_CGEvolve:evolver:Conjugate cycle count} {Oxs_CGEvolve:evolver:Cycle count} {Oxs_CGEvolve:evolver:Cycle sub count} {Oxs_CGEvolve:evolver:Energy calc count} Oxs_UniformExchange:exchange:Energy {Oxs_UniformExchange:exchange:Max Spin Ang} {Oxs_UniformExchange:exchange:Stage Max Spin Ang} {Oxs_UniformExchange:exchange:Run Max Spin Ang} Oxs_DMI_T:dmi:Energy Oxs_FixedZeeman:zeeman:Energy Oxs_Demag:demag:Energy Oxs_MinDriver::Iteration {Oxs_MinDriver::Stage iteration} Oxs_MinDriver::Stage Oxs_MinDriver::mx    Oxs_MinDriver::my    Oxs_MinDriver::mz   
# Units:                 A/m                                 J                                J                                 {}                                   {}                                        {}                                      {}                                   {}                                      {}                                     J                                      deg                                            deg                                              deg                                J                         J                         J                       {}                           {}                         {}                 {}                   {}                   {}           
                  0.091115770686599998              -4.6506326619800001e-17               0                                 1996                                 1515                                      210                                     1951                                 1696                                    3512                                  1.6803847829800001e-17                     26.466534751099999                             179.77444309699999                               179.77444309699999                -2.4573909068e-17        -4.9384202036500001e-17        1.06479366549e-17       3498                         3498                       0                   -9.5496327720599995e-07 -7.7776390178699997e-06  0.78854201194100004
# Table End
