# ODT 1.0
# Table Start
# Title: mmArchive Data Table, Thu Aug 24 17:18:44 CEST 2023
# Columns: {Oxs_CGEvolve:evolver:Max mxHxm} {Oxs_CGEvolve:evolver:Total energy} {Oxs_CGEvolve:evolver:Delta E} {Oxs_CGEvolve:evolver:Bracket count} {Oxs_CGEvolve:evolver:Line min count} {Oxs_CGEvolve:evolver:Conjugate cycle count} {Oxs_CGEvolve:evolver:Cycle count} {Oxs_CGEvolve:evolver:Cycle sub count} {Oxs_CGEvolve:evolver:Energy calc count} Oxs_UniformExchange:exchange:Energy {Oxs_UniformExchange:exchange:Max Spin Ang} {Oxs_UniformExchange:exchange:Stage Max Spin Ang} {Oxs_UniformExchange:exchange:Run Max Spin Ang} Oxs_DMI_T:dmi:Energy Oxs_FixedZeeman:zeeman:Energy Oxs_Demag:demag:Energy Oxs_MinDriver::Iteration {Oxs_MinDriver::Stage iteration} Oxs_MinDriver::Stage Oxs_MinDriver::mx    Oxs_MinDriver::my    Oxs_MinDriver::mz   
# Units:                 A/m                                 J                                J                                 {}                                   {}                                        {}                                      {}                                   {}                                      {}                                     J                                      deg                                            deg                                              deg                                J                         J                         J                       {}                           {}                         {}                 {}                   {}                   {}           
                  0.092864898667299994              -2.4121440267700001e-17              -3.0814879110200002e-33               334                                  297                                       7                                       317                                  256                                     632                                   1.3164508125e-17                        10.4824515287                                  15.355076227                                     15.355076227                      -3.1188868232900002e-17     -1.16936261153e-17          5.59654595551e-18       612                          612                        0                    1.2358314418999999e-17  2.2399444884399999e-17  0.47996260062399998
# Table End
