# ODT 1.0
# Table Start
# Title: mmArchive Data Table, Thu Aug 24 16:59:57 CEST 2023
# Columns: {Oxs_CGEvolve:evolver:Max mxHxm} {Oxs_CGEvolve:evolver:Total energy} {Oxs_CGEvolve:evolver:Delta E} {Oxs_CGEvolve:evolver:Bracket count} {Oxs_CGEvolve:evolver:Line min count} {Oxs_CGEvolve:evolver:Conjugate cycle count} {Oxs_CGEvolve:evolver:Cycle count} {Oxs_CGEvolve:evolver:Cycle sub count} {Oxs_CGEvolve:evolver:Energy calc count} Oxs_UniformExchange:exchange:Energy {Oxs_UniformExchange:exchange:Max Spin Ang} {Oxs_UniformExchange:exchange:Stage Max Spin Ang} {Oxs_UniformExchange:exchange:Run Max Spin Ang} Oxs_DMI_T:dmi:Energy Oxs_FixedZeeman:zeeman:Energy Oxs_Demag:demag:Energy Oxs_MinDriver::Iteration {Oxs_MinDriver::Stage iteration} Oxs_MinDriver::Stage Oxs_MinDriver::mx    Oxs_MinDriver::my    Oxs_MinDriver::mz   
# Units:                 A/m                                 J                                J                                 {}                                   {}                                        {}                                      {}                                   {}                                      {}                                     J                                      deg                                            deg                                              deg                                J                         J                         J                       {}                           {}                         {}                 {}                   {}                   {}           
                  0.084439718698900004              -5.5552372679099999e-17               0                                 210                                  177                                       10                                      190                                  166                                     388                                   5.3282496481400003e-18                     24.488957913899998                             24.5929148375                                    24.5929148375                     -1.3187608288899999e-17     -6.0727102966300002e-17        1.3034088927999999e-17     372                          372                        0                    7.2605097211600002e-17 -5.4067625583099998e-18  0.88912706965999999
# Table End
