# ODT 1.0
# Table Start
# Title: mmArchive Data Table, Fri Aug 18 16:38:00 CEST 2023
# Columns: {Oxs_CGEvolve:evolver:Max mxHxm} {Oxs_CGEvolve:evolver:Total energy} {Oxs_CGEvolve:evolver:Delta E} {Oxs_CGEvolve:evolver:Bracket count} {Oxs_CGEvolve:evolver:Line min count} {Oxs_CGEvolve:evolver:Conjugate cycle count} {Oxs_CGEvolve:evolver:Cycle count} {Oxs_CGEvolve:evolver:Cycle sub count} {Oxs_CGEvolve:evolver:Energy calc count} Oxs_UniformExchange:exchange:Energy {Oxs_UniformExchange:exchange:Max Spin Ang} {Oxs_UniformExchange:exchange:Stage Max Spin Ang} {Oxs_UniformExchange:exchange:Run Max Spin Ang} Oxs_DMI_T:dmi:Energy Oxs_FixedZeeman:zeeman:Energy Oxs_Demag:demag:Energy Oxs_MinDriver::Iteration {Oxs_MinDriver::Stage iteration} Oxs_MinDriver::Stage Oxs_MinDriver::mx    Oxs_MinDriver::my    Oxs_MinDriver::mz   
# Units:                 A/m                                 J                                J                                 {}                                   {}                                        {}                                      {}                                   {}                                      {}                                     J                                      deg                                            deg                                              deg                                J                         J                         J                       {}                           {}                         {}                 {}                   {}                   {}           
                  0.096300366134000004              -6.8535502258200004e-17               0                                 145                                  140                                       1                                       142                                  141                                     286                                   1.9014221844000001e-18                     8.4485691147700006                             11.4919831195                                    11.4919831195                     -7.5672901327799999e-18     -7.7615546528600002e-17        1.47459122188e-17       283                          283                        0                   -7.4149886513999996e-17  8.4963411630600005e-18  0.95599196458799995
# Table End
